TITLE = "35% Deflection"
VARIABLES = X,Y
ZONE T= "u - 08 terms Planform 01", I= 0050
  0.0000000E+00 -0.7040902E-04
  0.9959184E-01  0.1105800E-01
  0.1991837E+00  0.1449322E-01
  0.2987755E+00  0.1199567E-01
  0.3983673E+00  0.5013024E-02
  0.4979592E+00 -0.5269788E-02
  0.5975510E+00 -0.1788679E-01
  0.6971429E+00 -0.3205298E-01
  0.7967347E+00 -0.4713154E-01
  0.8963265E+00 -0.6260589E-01
  0.9959184E+00 -0.7805598E-01
  0.1095510E+01 -0.9313858E-01
  0.1195102E+01 -0.1075709E+00
  0.1294694E+01 -0.1211176E+00
  0.1394286E+01 -0.1335801E+00
  0.1493878E+01 -0.1447887E+00
  0.1593469E+01 -0.1545969E+00
  0.1693061E+01 -0.1628766E+00
  0.1792653E+01 -0.1695162E+00
  0.1892245E+01 -0.1744184E+00
  0.1991837E+01 -0.1775008E+00
  0.2091429E+01 -0.1786952E+00
  0.2191020E+01 -0.1779495E+00
  0.2290612E+01 -0.1752286E+00
  0.2390204E+01 -0.1705159E+00
  0.2489796E+01 -0.1638155E+00
  0.2589388E+01 -0.1551532E+00
  0.2688980E+01 -0.1445784E+00
  0.2788571E+01 -0.1321651E+00
  0.2888163E+01 -0.1180125E+00
  0.2987755E+01 -0.1022457E+00
  0.3087347E+01 -0.8501526E-01
  0.3186939E+01 -0.6649652E-01
  0.3286531E+01 -0.4688832E-01
  0.3386122E+01 -0.2641103E-01
  0.3485714E+01 -0.5304068E-02
  0.3585306E+01  0.1617737E-01
  0.3684898E+01  0.3776600E-01
  0.3784490E+01  0.5918686E-01
  0.3884082E+01  0.8016218E-01
  0.3983673E+01  0.1004168E+00
  0.4083265E+01  0.1196840E+00
  0.4182857E+01  0.1377118E+00
  0.4282449E+01  0.1542694E+00
  0.4382041E+01  0.1691539E+00
  0.4481633E+01  0.1821975E+00
  0.4581224E+01  0.1932741E+00
  0.4680816E+01  0.2023064E+00
  0.4780408E+01  0.2092728E+00
  0.4880000E+01  0.2142135E+00
ZONE T= "v - 08 terms Planform 01", I= 0050
  0.0000000E+00  0.6348766E-03
  0.9959184E-01  0.7805787E-02
  0.1991837E+00  0.1745895E-01
  0.2987755E+00  0.2833901E-01
  0.3983673E+00  0.3954195E-01
  0.4979592E+00  0.5044403E-01
  0.5975510E+00  0.6064062E-01
  0.6971429E+00  0.6989397E-01
  0.7967347E+00  0.7808913E-01
  0.8963265E+00  0.8519733E-01
  0.9959184E+00  0.9124592E-01
  0.1095510E+01  0.9629431E-01
  0.1195102E+01  0.1004152E+00
  0.1294694E+01  0.1036803E+00
  0.1394286E+01  0.1061504E+00
  0.1493878E+01  0.1078689E+00
  0.1593469E+01  0.1088579E+00
  0.1693061E+01  0.1091175E+00
  0.1792653E+01  0.1086267E+00
  0.1892245E+01  0.1073461E+00
  0.1991837E+01  0.1052217E+00
  0.2091429E+01  0.1021900E+00
  0.2191020E+01  0.9818322E-01
  0.2290612E+01  0.9313534E-01
  0.2390204E+01  0.8698760E-01
  0.2489796E+01  0.7969427E-01
  0.2589388E+01  0.7122776E-01
  0.2688980E+01  0.6158330E-01
  0.2788571E+01  0.5078272E-01
  0.2888163E+01  0.3887752E-01
  0.2987755E+01  0.2595081E-01
  0.3087347E+01  0.1211832E-01
  0.3186939E+01 -0.2471806E-02
  0.3286531E+01 -0.1764034E-01
  0.3386122E+01 -0.3317943E-01
  0.3485714E+01 -0.4885635E-01
  0.3585306E+01 -0.6441826E-01
  0.3684898E+01 -0.7959817E-01
  0.3784490E+01 -0.9412193E-01
  0.3884082E+01 -0.1077162E+00
  0.3983673E+01 -0.1201171E+00
  0.4083265E+01 -0.1310803E+00
  0.4182857E+01 -0.1403906E+00
  0.4282449E+01 -0.1478731E+00
  0.4382041E+01 -0.1534045E+00
  0.4481633E+01 -0.1569237E+00
  0.4581224E+01 -0.1584439E+00
  0.4680816E+01 -0.1580632E+00
  0.4780408E+01 -0.1559758E+00
  0.4880000E+01 -0.1524818E+00
ZONE T= "w - 08 terms Planform 01", I= 0050
  0.0000000E+00  0.4635889E-02
  0.9959184E-01  0.1413119E-01
  0.1991837E+00  0.2543720E-01
  0.2987755E+00  0.3802015E-01
  0.3983673E+00  0.5142190E-01
  0.4979592E+00  0.6525141E-01
  0.5975510E+00  0.7917682E-01
  0.6971429E+00  0.9291810E-01
  0.7967347E+00  0.1062403E+00
  0.8963265E+00  0.1189471E+00
  0.9959184E+00  0.1308754E+00
  0.1095510E+01  0.1418902E+00
  0.1195102E+01  0.1518794E+00
  0.1294694E+01  0.1607505E+00
  0.1394286E+01  0.1684259E+00
  0.1493878E+01  0.1748408E+00
  0.1593469E+01  0.1799395E+00
  0.1693061E+01  0.1836739E+00
  0.1792653E+01  0.1860010E+00
  0.1892245E+01  0.1868818E+00
  0.1991837E+01  0.1862803E+00
  0.2091429E+01  0.1841627E+00
  0.2191020E+01  0.1804972E+00
  0.2290612E+01  0.1752542E+00
  0.2390204E+01  0.1684066E+00
  0.2489796E+01  0.1599307E+00
  0.2589388E+01  0.1498073E+00
  0.2688980E+01  0.1380232E+00
  0.2788571E+01  0.1245729E+00
  0.2888163E+01  0.1094604E+00
  0.2987755E+01  0.9270186E-01
  0.3087347E+01  0.7432807E-01
  0.3186939E+01  0.5438707E-01
  0.3286531E+01  0.3294731E-01
  0.3386122E+01  0.1010090E-01
  0.3485714E+01 -0.1403294E-01
  0.3585306E+01 -0.3930424E-01
  0.3684898E+01 -0.6552843E-01
  0.3784490E+01 -0.9248235E-01
  0.3884082E+01 -0.1199001E+00
  0.3983673E+01 -0.1474688E+00
  0.4083265E+01 -0.1748240E+00
  0.4182857E+01 -0.2015455E+00
  0.4282449E+01 -0.2271522E+00
  0.4382041E+01 -0.2510981E+00
  0.4481633E+01 -0.2727667E+00
  0.4581224E+01 -0.2914669E+00
  0.4680816E+01 -0.3064275E+00
  0.4780408E+01 -0.3167928E+00
  0.4880000E+01 -0.3216173E+00
